# vtk DataFile Version 5.1
vtk output
ASCII
DATASET POLYDATA
POINTS 28 float
-4 -2 0 -4 -1.33333 0 -4 -0.666667 0 
-4 0 0 -4 0.666667 0 -4 1.33333 0 
-4 2 0 -6 -2 -2 2 -2 -2 
-6 -1.33333 -2 2 -1.33333 -2 -6 -0.666667 -2 
2 -0.666667 -2 -6 0 -2 2 0 -2 
-6 0.666667 -2 2 0.666667 -2 -6 1.33333 -2 
2 1.33333 -2 -6 2 -2 2 2 -2 
0 -2 0 0 -1.33333 0 0 -0.666667 0 
0 0 0 0 0.666667 0 0 1.33333 0 
0 2 0 
POINT_DATA 28
FIELD FieldData 1
NodesId 1 28 double
3 10 17 24 31 38 45 49 57 
58 66 67 75 76 84 85 93 94 
102 103 111 115 122 129 136 143 150 
157 
