# vtk DataFile Version 4.2
vtk output
ASCII
DATASET POLYDATA
POINTS 242 double
0 0 0 1 0 0 2 0 0 
3 0 0 4 0 0 5 0 0 
6 0 0 7 0 0 8 0 0 
9 0 0 10 0 0 0 1 0 
1 1 0 2 1 0 3 1 0 
4 1 0 5 1 0 6 1 0 
7 1 0 8 1 0 9 1 0 
10 1 0 0 2 0 1 2 0 
2 2 0 3 2 0 4 2 0 
5 2 0 6 2 0 7 2 0 
8 2 0 9 2 0 10 2 0 
0 3 0 1 3 0 2 3 0 
3 3 0 4 3 0 5 3 0 
6 3 0 7 3 0 8 3 0 
9 3 0 10 3 0 0 4 0 
1 4 0 2 4 0 3 4 0 
4 4 0 5 4 0 6 4 0 
7 4 0 8 4 0 9 4 0 
10 4 0 0 5 0 1 5 0 
2 5 0 3 5 0 4 5 0 
5 5 0 6 5 0 7 5 0 
8 5 0 9 5 0 10 5 0 
0 6 0 1 6 0 2 6 0 
3 6 0 4 6 0 5 6 0 
6 6 0 7 6 0 8 6 0 
9 6 0 10 6 0 0 7 0 
1 7 0 2 7 0 3 7 0 
4 7 0 5 7 0 6 7 0 
7 7 0 8 7 0 9 7 0 
10 7 0 0 8 0 1 8 0 
2 8 0 3 8 0 4 8 0 
5 8 0 6 8 0 7 8 0 
8 8 0 9 8 0 10 8 0 
0 9 0 1 9 0 2 9 0 
3 9 0 4 9 0 5 9 0 
6 9 0 7 9 0 8 9 0 
9 9 0 10 9 0 0 10 0 
1 10 0 2 10 0 3 10 0 
4 10 0 5 10 0 6 10 0 
7 10 0 8 10 0 9 10 0 
10 10 0 10 0 0 11 0 0 
12 0 0 13 0 0 14 0 0 
15 0 0 16 0 0 17 0 0 
18 0 0 19 0 0 20 0 0 
10 1 0 11 1 0 12 1 0 
13 1 0 14 1 0 15 1 0 
16 1 0 17 1 0 18 1 0 
19 1 0 20 1 0 10 2 0 
11 2 0 12 2 0 13 2 0 
14 2 0 15 2 0 16 2 0 
17 2 0 18 2 0 19 2 0 
20 2 0 10 3 0 11 3 0 
12 3 0 13 3 0 14 3 0 
15 3 0 16 3 0 17 3 0 
18 3 0 19 3 0 20 3 0 
10 4 0 11 4 0 12 4 0 
13 4 0 14 4 0 15 4 0 
16 4 0 17 4 0 18 4 0 
19 4 0 20 4 0 10 5 0 
11 5 0 12 5 0 13 5 0 
14 5 0 15 5 0 16 5 0 
17 5 0 18 5 0 19 5 0 
20 5 0 10 6 0 11 6 0 
12 6 0 13 6 0 14 6 0 
15 6 0 16 6 0 17 6 0 
18 6 0 19 6 0 20 6 0 
10 7 0 11 7 0 12 7 0 
13 7 0 14 7 0 15 7 0 
16 7 0 17 7 0 18 7 0 
19 7 0 20 7 0 10 8 0 
11 8 0 12 8 0 13 8 0 
14 8 0 15 8 0 16 8 0 
17 8 0 18 8 0 19 8 0 
20 8 0 10 9 0 11 9 0 
12 9 0 13 9 0 14 9 0 
15 9 0 16 9 0 17 9 0 
18 9 0 19 9 0 20 9 0 
10 10 0 11 10 0 12 10 0 
13 10 0 14 10 0 15 10 0 
16 10 0 17 10 0 18 10 0 
19 10 0 20 10 0 
POLYGONS 400 1600
3 0 1 12 
3 0 12 11 
3 1 2 13 
3 1 13 12 
3 2 3 14 
3 2 14 13 
3 3 4 15 
3 3 15 14 
3 4 5 16 
3 4 16 15 
3 5 6 17 
3 5 17 16 
3 6 7 18 
3 6 18 17 
3 7 8 19 
3 7 19 18 
3 8 9 20 
3 8 20 19 
3 10 21 20 
3 9 10 20 
3 11 12 23 
3 11 23 22 
3 12 13 24 
3 12 24 23 
3 13 14 25 
3 13 25 24 
3 14 15 26 
3 14 26 25 
3 15 16 27 
3 15 27 26 
3 16 17 28 
3 16 28 27 
3 17 18 29 
3 17 29 28 
3 18 19 30 
3 18 30 29 
3 19 20 31 
3 19 31 30 
3 20 21 32 
3 20 32 31 
3 22 23 34 
3 22 34 33 
3 23 24 35 
3 23 35 34 
3 24 25 36 
3 24 36 35 
3 25 26 37 
3 25 37 36 
3 26 27 38 
3 26 38 37 
3 27 28 39 
3 27 39 38 
3 28 29 40 
3 28 40 39 
3 29 30 41 
3 29 41 40 
3 30 31 42 
3 30 42 41 
3 31 32 43 
3 31 43 42 
3 33 34 45 
3 33 45 44 
3 34 35 46 
3 34 46 45 
3 35 36 47 
3 35 47 46 
3 36 37 48 
3 36 48 47 
3 37 38 49 
3 37 49 48 
3 38 39 50 
3 38 50 49 
3 39 40 51 
3 39 51 50 
3 40 41 52 
3 40 52 51 
3 41 42 53 
3 41 53 52 
3 42 43 54 
3 42 54 53 
3 44 45 56 
3 44 56 55 
3 45 46 57 
3 45 57 56 
3 46 47 58 
3 46 58 57 
3 47 48 59 
3 47 59 58 
3 48 49 60 
3 48 60 59 
3 49 50 61 
3 49 61 60 
3 50 51 62 
3 50 62 61 
3 51 52 63 
3 51 63 62 
3 52 53 64 
3 52 64 63 
3 53 54 65 
3 53 65 64 
3 55 56 67 
3 55 67 66 
3 56 57 68 
3 56 68 67 
3 57 58 69 
3 57 69 68 
3 58 59 70 
3 58 70 69 
3 59 60 71 
3 59 71 70 
3 60 61 72 
3 60 72 71 
3 61 62 73 
3 61 73 72 
3 62 63 74 
3 62 74 73 
3 63 64 75 
3 63 75 74 
3 64 65 76 
3 64 76 75 
3 66 67 78 
3 66 78 77 
3 67 68 79 
3 67 79 78 
3 68 69 80 
3 68 80 79 
3 69 70 81 
3 69 81 80 
3 70 71 82 
3 70 82 81 
3 71 72 83 
3 71 83 82 
3 72 73 84 
3 72 84 83 
3 73 74 85 
3 73 85 84 
3 74 75 86 
3 74 86 85 
3 75 76 87 
3 75 87 86 
3 77 78 89 
3 77 89 88 
3 78 79 90 
3 78 90 89 
3 79 80 91 
3 79 91 90 
3 80 81 92 
3 80 92 91 
3 81 82 93 
3 81 93 92 
3 82 83 94 
3 82 94 93 
3 83 84 95 
3 83 95 94 
3 84 85 96 
3 84 96 95 
3 85 86 97 
3 85 97 96 
3 86 87 98 
3 86 98 97 
3 88 89 100 
3 88 100 99 
3 89 90 101 
3 89 101 100 
3 90 91 102 
3 90 102 101 
3 91 92 103 
3 91 103 102 
3 92 93 104 
3 92 104 103 
3 93 94 105 
3 93 105 104 
3 94 95 106 
3 94 106 105 
3 95 96 107 
3 95 107 106 
3 96 97 108 
3 96 108 107 
3 97 98 109 
3 97 109 108 
3 100 111 110 
3 99 100 110 
3 100 101 112 
3 100 112 111 
3 101 102 113 
3 101 113 112 
3 102 103 114 
3 102 114 113 
3 103 104 115 
3 103 115 114 
3 104 105 116 
3 104 116 115 
3 105 106 117 
3 105 117 116 
3 106 107 118 
3 106 118 117 
3 107 108 119 
3 107 119 118 
3 108 109 120 
3 108 120 119 
3 121 122 133 
3 121 133 132 
3 122 123 134 
3 122 134 133 
3 123 124 135 
3 123 135 134 
3 124 125 136 
3 124 136 135 
3 125 126 137 
3 125 137 136 
3 126 127 138 
3 126 138 137 
3 127 128 139 
3 127 139 138 
3 128 129 140 
3 128 140 139 
3 129 130 141 
3 129 141 140 
3 131 142 141 
3 130 131 141 
3 132 133 144 
3 132 144 143 
3 133 134 145 
3 133 145 144 
3 134 135 146 
3 134 146 145 
3 135 136 147 
3 135 147 146 
3 136 137 148 
3 136 148 147 
3 137 138 149 
3 137 149 148 
3 138 139 150 
3 138 150 149 
3 139 140 151 
3 139 151 150 
3 140 141 152 
3 140 152 151 
3 141 142 153 
3 141 153 152 
3 143 144 155 
3 143 155 154 
3 144 145 156 
3 144 156 155 
3 145 146 157 
3 145 157 156 
3 146 147 158 
3 146 158 157 
3 147 148 159 
3 147 159 158 
3 148 149 160 
3 148 160 159 
3 149 150 161 
3 149 161 160 
3 150 151 162 
3 150 162 161 
3 151 152 163 
3 151 163 162 
3 152 153 164 
3 152 164 163 
3 154 155 166 
3 154 166 165 
3 155 156 167 
3 155 167 166 
3 156 157 168 
3 156 168 167 
3 157 158 169 
3 157 169 168 
3 158 159 170 
3 158 170 169 
3 159 160 171 
3 159 171 170 
3 160 161 172 
3 160 172 171 
3 161 162 173 
3 161 173 172 
3 162 163 174 
3 162 174 173 
3 163 164 175 
3 163 175 174 
3 165 166 177 
3 165 177 176 
3 166 167 178 
3 166 178 177 
3 167 168 179 
3 167 179 178 
3 168 169 180 
3 168 180 179 
3 169 170 181 
3 169 181 180 
3 170 171 182 
3 170 182 181 
3 171 172 183 
3 171 183 182 
3 172 173 184 
3 172 184 183 
3 173 174 185 
3 173 185 184 
3 174 175 186 
3 174 186 185 
3 176 177 188 
3 176 188 187 
3 177 178 189 
3 177 189 188 
3 178 179 190 
3 178 190 189 
3 179 180 191 
3 179 191 190 
3 180 181 192 
3 180 192 191 
3 181 182 193 
3 181 193 192 
3 182 183 194 
3 182 194 193 
3 183 184 195 
3 183 195 194 
3 184 185 196 
3 184 196 195 
3 185 186 197 
3 185 197 196 
3 187 188 199 
3 187 199 198 
3 188 189 200 
3 188 200 199 
3 189 190 201 
3 189 201 200 
3 190 191 202 
3 190 202 201 
3 191 192 203 
3 191 203 202 
3 192 193 204 
3 192 204 203 
3 193 194 205 
3 193 205 204 
3 194 195 206 
3 194 206 205 
3 195 196 207 
3 195 207 206 
3 196 197 208 
3 196 208 207 
3 198 199 210 
3 198 210 209 
3 199 200 211 
3 199 211 210 
3 200 201 212 
3 200 212 211 
3 201 202 213 
3 201 213 212 
3 202 203 214 
3 202 214 213 
3 203 204 215 
3 203 215 214 
3 204 205 216 
3 204 216 215 
3 205 206 217 
3 205 217 216 
3 206 207 218 
3 206 218 217 
3 207 208 219 
3 207 219 218 
3 209 210 221 
3 209 221 220 
3 210 211 222 
3 210 222 221 
3 211 212 223 
3 211 223 222 
3 212 213 224 
3 212 224 223 
3 213 214 225 
3 213 225 224 
3 214 215 226 
3 214 226 225 
3 215 216 227 
3 215 227 226 
3 216 217 228 
3 216 228 227 
3 217 218 229 
3 217 229 228 
3 218 219 230 
3 218 230 229 
3 221 232 231 
3 220 221 231 
3 221 222 233 
3 221 233 232 
3 222 223 234 
3 222 234 233 
3 223 224 235 
3 223 235 234 
3 224 225 236 
3 224 236 235 
3 225 226 237 
3 225 237 236 
3 226 227 238 
3 226 238 237 
3 227 228 239 
3 227 239 238 
3 228 229 240 
3 228 240 239 
3 229 230 241 
3 229 241 240 

POINT_DATA 242
SCALARS master vtktypeint64
LOOKUP_TABLE default
0 1 2 3 4 5 6 7 8 
9 10 11 12 13 14 15 16 17 
18 19 20 21 22 23 24 25 26 
27 28 29 30 31 32 33 34 35 
36 37 38 39 40 41 42 43 44 
45 46 47 48 49 50 51 52 53 
54 55 56 57 58 59 60 61 62 
63 64 65 66 67 68 69 70 71 
72 73 74 75 76 77 78 79 80 
81 82 83 84 85 86 87 88 89 
90 91 92 93 94 95 96 97 98 
99 100 101 102 103 104 105 106 107 
108 109 110 111 112 113 114 115 116 
117 118 119 120 10 122 123 124 125 
126 127 128 129 130 131 21 133 134 
135 136 137 138 139 140 141 142 32 
144 145 146 147 148 149 150 151 152 
153 43 155 156 157 158 159 160 161 
162 163 164 54 166 167 168 169 170 
171 172 173 174 175 65 177 178 179 
180 181 182 183 184 185 186 76 188 
189 190 191 192 193 194 195 196 197 
87 199 200 201 202 203 204 205 206 
207 208 98 210 211 212 213 214 215 
216 217 218 219 109 221 222 223 224 
225 226 227 228 229 230 120 232 233 
234 235 236 237 238 239 240 241 
FIELD FieldData 1
CreasesId 1 242 vtktypeint64
2 1 1 1 1 1 1 1 1 
1 2 1 0 0 0 0 0 0 
0 0 0 1 1 0 0 0 0 
0 0 0 0 0 1 1 0 0 
0 0 0 0 0 0 0 1 1 
0 0 0 0 0 0 0 0 0 
1 1 0 0 0 0 0 0 0 
0 0 1 1 0 0 0 0 0 
0 0 0 0 1 1 0 0 0 
0 0 0 0 0 0 1 1 0 
0 0 0 0 0 0 0 0 1 
1 0 0 0 0 0 0 0 0 
0 1 2 1 1 1 1 1 1 
1 1 1 2 2 1 1 1 1 
1 1 1 1 1 2 1 0 0 
0 0 0 0 0 0 0 1 1 
0 0 0 0 0 0 0 0 0 
1 1 0 0 0 0 0 0 0 
0 0 1 1 0 0 0 0 0 
0 0 0 0 1 1 0 0 0 
0 0 0 0 0 0 1 1 0 
0 0 0 0 0 0 0 0 1 
1 0 0 0 0 0 0 0 0 
0 1 1 0 0 0 0 0 0 
0 0 0 1 1 0 0 0 0 
0 0 0 0 0 1 2 1 1 
1 1 1 1 1 1 1 2 
