# vtk DataFile Version 4.2
vtk output
ASCII
DATASET POLYDATA
POINTS 33 double
-2 -2 -2 0 -2 0 2 -2 2 
-2 0 -2 0 0 0 2 0 2 
-2 2 -2 0 2 0 2 2 2 
-6 -2 2 -4 -2 0 -2 -2 -2 
-6 0 2 -4 0 0 -2 0 -2 
-6 2 2 -4 2 0 -2 2 -2 
-6 -2 -2 -4 -2 -2 -2 -2 -2 
0 -2 -2 2 -2 -2 -6 0 -2 
-4 0 -2 -2 0 -2 0 0 -2 
2 0 -2 -6 2 -2 -4 2 -2 
-2 2 -2 0 2 -2 2 2 -2 

POLYGONS 32 128
3 8 7 5 
3 3 1 0 
3 4 2 1 
3 4 1 3 
3 5 2 4 
3 6 4 3 
3 7 6 4 
3 7 5 4 
3 17 16 14 
3 12 10 9 
3 13 11 10 
3 13 10 12 
3 14 11 13 
3 15 13 12 
3 16 15 13 
3 16 14 13 
3 24 19 20 
3 25 20 21 
3 29 24 25 
3 24 23 19 
3 25 24 20 
3 26 25 21 
3 23 18 19 
3 31 26 27 
3 26 21 22 
3 29 28 24 
3 30 29 25 
3 27 22 26 
3 31 30 26 
3 28 23 24 
3 30 25 26 
3 32 31 27 

POINT_DATA 33
SCALARS master vtktypeint64
LOOKUP_TABLE default
0 1 2 3 4 5 6 7 8 
9 10 0 12 13 3 15 16 6 
18 19 0 21 22 23 24 3 26 
27 28 29 6 31 32 
