# vtk DataFile Version 5.0
vtk output
ASCII
DATASET POLYDATA
POINTS 33 double
-6 -2 2 -4 -2 0 -2 -2 -2 
-6 0 2 -4 0 0 -2 0 -2 
-6 2 2 -4 2 0 -2 2 -2 
-6 -2 -2 -4 -2 -2 -2 -2 -2 
0 -2 -2 2 -2 -2 -6 0 -2 
-4 0 -2 -2 0 -2 0 0 -2 
2 0 -2 -6 2 -2 -4 2 -2 
-2 2 -2 0 2 -2 2 2 -2 
-2 -2 -2 0 -2 0 2 -2 2 
-2 0 -2 0 0 0 2 0 2 
-2 2 -2 0 2 0 2 2 2 

METADATA
INFORMATION 2
NAME L2_NORM_RANGE LOCATION vtkDataArray
DATA 2 0 6.63325 
NAME L2_NORM_FINITE_RANGE LOCATION vtkDataArray
DATA 2 0 6.63325 

POLYGONS 33 96
OFFSETS vtktypeint64
0 3 6 9 12 15 18 21 24 
27 30 33 36 39 42 45 48 51 
54 57 60 63 66 69 72 75 78 
81 84 87 90 93 96 
CONNECTIVITY vtktypeint64
8 7 5 0 1 3 1 2 4 
3 1 4 4 2 5 3 4 6 
7 6 4 4 5 7 15 10 11 
16 11 12 20 15 16 15 14 10 
16 15 11 17 16 12 14 9 10 
22 17 18 17 12 13 20 19 15 
21 20 16 17 13 18 22 21 17 
19 14 15 21 16 17 23 22 18 
32 31 29 24 25 27 25 26 28 
27 25 28 28 26 29 27 28 30 
31 30 28 28 29 31 
POINT_DATA 33
SCALARS master vtktypeint64
LOOKUP_TABLE default
0 1 2 3 4 5 6 7 8 
9 10 2 12 13 14 15 5 17 
18 19 20 8 22 23 2 25 26 
5 28 29 8 31 32 
METADATA
INFORMATION 0

NORMALS Normals float
0.707107 0 0.707107 0.707107 0 0.707107 0.707107 0 0.707107 
0.707107 0 0.707107 0.707107 0 0.707107 0.707107 0 0.707107 
0.707107 0 0.707107 0.707107 0 0.707107 0.707107 0 0.707107 
0 0 1 0 0 1 0 0 1 
0 0 1 0 0 1 0 0 1 
0 0 1 0 0 1 0 0 1 
0 0 1 0 0 1 0 0 1 
0 0 1 0 0 1 0 0 1 
-0.707107 0 0.707107 -0.707107 0 0.707107 -0.707107 0 0.707107 
-0.707107 0 0.707107 -0.707107 0 0.707107 -0.707107 0 0.707107 
-0.707107 0 0.707107 -0.707107 0 0.707107 -0.707107 0 0.707107 

METADATA
INFORMATION 2
NAME L2_NORM_RANGE LOCATION vtkDataArray
DATA 2 1 1 
NAME L2_NORM_FINITE_RANGE LOCATION vtkDataArray
DATA 2 1 1 

